
Host: LENOVO-9i

Timers On : Mon Jul 24 21:29:32 2023
Timers Off: Mon Jul 24 21:30:33 2023

Wall Time:       60.83 seconds

                                                       Time (seconds)
Module                                       User      System        Wall        Calls

--------------------------------------------------------------------------------------

**************************************************************************************
